TITLE = "Solution ref map"
VARIABLES = "ID","Tag"
ZONE T= "Solution tags"
1, Temperature
2, Velocity
3, Metric
4, Pressure
5, GradientT
